{
    "hydrogen": {
        "general": {
            "fullname": "Hydrogen",
            "symbol": "H",
            "atomic_number": 1,
            "description": "Hydrogen is the lightest and most abundant element in the universe. It is a colorless, odorless, and highly flammable diatomic gas at room temperature.\nHydrogen is the primary fuel for stars and the sun, playing a crucial role in the synthesis of heavier elements through nuclear fusion.\nIt forms compounds with most nonmetals and is essential in organic chemistry and industrial processes, including ammonia production and petroleum refining.",
            "appearance": {
                "color": null,
                "phase": "gas"
            },
            "period": 1,
            "group": 1,
            "block": "s",
            "type": "Reactive nonmetal",
            "radioactive": false,
            "half_life": null,
            "cas_number": "CAS1333-74-0"
        },
        "nuclear": {
            "protons": 1,
            "neutrons": 0,
            "electrons": 1,
            "valence_electrons": 1,
            "isotopes": {
                "1H": {
                    "name": "Protium",
                    "protons": 1,
                    "neutrons": 0,
                    "half_life": null,
                    "isotope_weight": 1.007825031
                },
                "2H": {
                    "name": "Deuterium",
                    "protons": 1,
                    "neutrons": 1,
                    "half_life": null,
                    "isotope_weight": 2.014101777
                },
                "3H": {
                    "name": "Tritium",
                    "protons": 1,
                    "neutrons": 2,
                    "half_life": "12.32 years",
                    "isotope_weight": 3.016049281,
                    "decay": [
                        {
                            "mode": "β-",
                            "product": ["3He"],
                            "chance": 100
                        }
                    ]
                },
                "4H": {
                    "half_life": "139 yoctoseconds",
                    "protons": 1,
                    "neutrons": 3,
                    "isotope_weight": 4.02643,
                    "decay": [
                        {
                            "mode": "n",
                            "product": ["3H"],
                            "chance": 100
                        }
                    ]
                },
                "5H": {
                    "half_life": "86 yoctoseconds",
                    "protons": 1,
                    "neutrons": 4,
                    "isotope_weight": 5.03531,
                    "decay": [
                        {
                            "mode": "2n",
                            "product": ["3H"],
                            "chance": 100
                        }
                    ]
                },
                "6H": {
                    "half_life": "294 yoctoseconds",
                    "protons": 1,
                    "neutrons": 5,
                    "isotope_weight": 6.04496
                },
                "7H": {
                    "half_life": "652 yoctoseconds",
                    "protons": 1,
                    "neutrons": 6,
                    "isotope_weight": 7.05275
                }
            }
        },
        "physical": {
            "atomic_mass": 1.00797094202593,
            "density": 0.00008988,
            "melt": -259.16,
            "boil": -252.879
        },
        "electronic": {
            "electronegativity": 2.2,
            "electron_affinity": 0.754,
            "ionization_energy": 13.598,
            "shells": [1],
            "subshells": ["1s1"],
            "oxidation_states": [-1, 1],
            "conductivity_type": "Insulator"
        },
        "measurements": {
            "radius": {
                "calculated": 53,
                "empirical": 25,
                "covalent": 32,
                "van_der_waals": 120
            },
            "hardness": {
                "brinell": null,
                "mohs": null,
                "vickers": null
            },
            "atomic_volume": 14.1,
            "sound_transmission_speed": 1310
        },
        "historical": {
            "discoverers": {
                "Henry Cavendish": "male"
            },
            "date": "1766 AD"
        }
    },
    "helium": {
        "general": {
            "fullname": "Helium",
            "symbol": "He",
            "atomic_number": 2,
            "description": "Helium is a colorless, odorless, tasteless, non-toxic, inert monatomic gas. It is the second lightest and second most abundant element in the observable universe. Helium is used in cryogenics, deep-sea breathing systems, and as a protective gas in industrial processes. It has the lowest boiling and melting points of all elements and does not solidify at standard pressure.",
            "appearance": {
                "color": null,
                "phase": "gas"
            },
            "period": 1,
            "group": 18,
            "block": "s",
            "type": "Noble gas",
            "radioactive": false,
            "half_life": null,
            "cas_number": "CAS7440-59-7"
        },
        "nuclear": {
            "protons": 2,
            "neutrons": 2,
            "electrons": 2,
            "valence_electrons": 2,
            "isotopes": {
                "2He": {
                    "half_life": "much less than 1e-9 s",
                    "protons": 2,
                    "neutrons": 0,
                    "isotope_weight": 2.015894,
                    "decay": [
                        {
                            "mode": "p",
                            "product": ["1H"],
                            "chance": 99.99
                        },
                        {
                            "mode": "β+",
                            "product": ["2H"],
                            "chance": 0.01
                        }
                    ]
                },
                "3He": {
                    "half_life": null,
                    "protons": 2,
                    "neutrons": 1,
                    "isotope_weight": 3.0160293
                },
                "4He": {
                    "half_life": null,
                    "protons": 2,
                    "neutrons": 2,
                    "isotope_weight": 4.00260325415
                },
                "5He": {
                    "half_life": "6.02e-22 s",
                    "protons": 2,
                    "neutrons": 3,
                    "isotope_weight": 5.012057,
                    "decay": [
                        {
                            "mode": "n",
                            "product": ["4He"],
                            "chance": 100
                        }
                    ]
                },
                "6He": {
                    "half_life": "806.92 ms",
                    "protons": 2,
                    "neutrons": 4,
                    "isotope_weight": 6.018885889,
                    "decay": [
                        {
                            "mode": "β-",
                            "product": ["6Li"],
                            "chance": 99.999722
                        },
                        {
                            "mode": "β-d",
                            "product": ["4He"],
                            "chance": 0.000278
                        }
                    ]
                },
                "7He": {
                    "half_life": "2.51e-21 s",
                    "protons": 2,
                    "neutrons": 5,
                    "isotope_weight": 7.027991,
                    "decay": [
                        {
                            "mode": "n",
                            "product": ["6He"],
                            "chance": 100
                        }
                    ]
                },
                "8He": {
                    "half_life": "119.5 ms",
                    "protons": 2,
                    "neutrons": 6,
                    "isotope_weight": 8.033934388,
                    "decay": [
                        {
                            "mode": "β-",
                            "product": ["8Li"],
                            "chance": 83.1
                        },
                        {
                            "mode": "β-n",
                            "product": ["7Li"],
                            "chance": 16
                        },
                        {
                            "mode": "β-t",
                            "product": ["5He"],
                            "chance": 0.9
                        }
                    ]
                },
                "9He": {
                    "half_life": "2.5e−21 s",
                    "protons": 2,
                    "neutrons": 7,
                    "isotope_weight": 9.043946,
                    "decay": [
                        {
                            "mode": "n",
                            "product": ["8He"],
                            "chance": 100
                        }
                    ]
                },
                "10He": {
                    "half_life": "2.60e-22 s",
                    "protons": 2,
                    "neutrons": 8,
                    "isotope_weight": 10.05281531,
                    "decay": [
                        {
                            "mode": "2n",
                            "product": ["8He"],
                            "chance": 100
                        }
                    ]
                }
            }
        },
        "physical": {
            "atomic_mass": 4.002602,
            "density": 0.0001786,
            "melt": -272.2,
            "boil": -268.93
        },
        "electronic": {
            "electronegativity": null,
            "electron_affinity": 0.0,
            "ionization_energy": 24.587,
            "shells": [2],
            "subshells": ["1s2"],
            "oxidation_states": [0],
            "conductivity_type": "Insulator"
        },
        "measurements": {
            "radius": {
                "calculated": 31,
                "empirical": 28,
                "covalent": 32,
                "van_der_waals": 140
            },
            "hardness": {
                "brinell": null,
                "mohs": null,
                "vickers": null
            },
            "atomic_volume": 31.8,
            "sound_transmission_speed": 972
        },
        "historical": {
            "discoverers": {
                "Pierre Janssen": "male",
                "Joseph Norman Lockyer": "male"
            },
            "date": "1868 AD"
        }
    },
    "lithium": {
        "general": {
            "fullname": "Lithium",
            "symbol": "Li",
            "atomic_number": 3,
            "description": "Lithium is a soft, silvery-white alkali metal. Under standard conditions it is the lightest metal and the least dense solid element.\nIt has important industrial applications in batteries, ceramics, and pharmaceuticals, and it is highly reactive—especially in water.",
            "appearance": {
                "color": "silvery-white",
                "phase": "solid"
            },
            "period": 2,
            "group": 1,
            "block": "s",
            "type": "Alkali metal",
            "radioactive": false,
            "half_life": null,
            "cas_number": "CAS7439-93-2"
        },
        "nuclear": {
            "protons": 3,
            "neutrons": 4,
            "electrons": 3,
            "valence_electrons": 1,
            "isotopes": {
                "3Li": {
                    "half_life": "???",
                    "protons": 3,
                    "neutrons": 0,
                    "isotope_weight": 3.03078,
                    "decay": [
                        {
                            "mode": "p?",
                            "product": ["2He?"],
                            "chance": 100
                        }
                    ]
                },
                "4Li": {
                    "half_life": "91 ys",
                    "protons": 3,
                    "neutrons": 1,
                    "isotope_weight": 4.02719,
                    "decay": [
                        {
                            "mode": "p",
                            "product": ["3He"],
                            "chance": 100
                        }
                    ]
                },
                "5Li": {
                    "half_life": "370 ys",
                    "protons": 3,
                    "neutrons": 2,
                    "isotope_weight": 5.01254,
                    "decay": [
                        {
                            "mode": "p",
                            "product": ["4He"],
                            "chance": 100
                        }
                    ]
                },
                "6Li": {
                    "half_life": null,
                    "protons": 3,
                    "neutrons": 3,
                    "isotope_weight": 6.0151228874,
                    "metastable": {
                        "m": {
                            "half_life": "56 as",
                            "energy": 3562.88,
                            "decay": [
                                {
                                    "mode": "IT",
                                    "product": ["6Li"],
                                    "chance": 100
                                }
                            ]
                        }
                    }
                },
                "7Li": {
                    "half_life": null,
                    "protons": 3,
                    "neutrons": 4,
                    "isotope_weight": 7.016003434
                },
                "8Li": {
                    "half_life": "838.7 ms",
                    "protons": 3,
                    "neutrons": 5,
                    "isotope_weight": 8.02248624,
                    "decay": [
                        {
                            "mode": "β-",
                            "product": ["8Be"],
                            "chance": 100
                        }
                    ]
                },
                "9Li": {
                    "half_life": "178.2 ms",
                    "protons": 3,
                    "neutrons": 6,
                    "isotope_weight": 9.02679019,
                    "decay": [
                        {
                            "mode": "β-n",
                            "product": ["8Be"],
                            "chance": 50.5
                        },
                        {
                            "mode": "β-",
                            "product": ["9Be"],
                            "chance": 49.5
                        }
                    ]
                },
                "10Li": {
                    "half_life": "2 zs",
                    "protons": 3,
                    "neutrons": 7,
                    "isotope_weight": 10.035483,
                    "decay": [
                        {
                            "mode": "n",
                            "product": ["9Li"],
                            "chance": 100
                        }
                    ],
                    "metastable": {
                        "m1": {
                            "half_life": "3.7 zs",
                            "energy": 200,
                            "decay": [
                                {
                                    "mode": "IT",
                                    "product": ["10Li"],
                                    "chance": 100
                                }
                            ]
                        },
                        "m2": {
                            "half_life": "1.35 zs",
                            "energy": 480,
                            "decay": [
                                {
                                    "mode": "IT",
                                    "product": ["10Li"],
                                    "chance": 100
                                }
                            ]
                        }
                    }
                },
                "11Li": {
                    "half_life": "8.75 ms",
                    "protons": 3,
                    "neutrons": 8,
                    "isotope_weight": 11.0437236,
                    "decay": [
                        {
                            "mode": "β−n",
                            "product": ["10Be"],
                            "chance": 86.3
                        },
                        {
                            "mode": "β−",
                            "product": ["11Be"],
                            "chance": 6.0
                        },
                        {
                            "mode": "β−2n",
                            "product": ["9Be"],
                            "chance": 4.1
                        },
                        {
                            "mode": "β−3n",
                            "product": ["8Be"],
                            "chance": 1.9
                        },
                        {
                            "mode": "β−α",
                            "product": ["7He"],
                            "chance": 1.7
                        },
                        {
                            "mode": "β−d",
                            "product": ["9Li"],
                            "chance": 0.013
                        },
                        {
                            "mode": "β−t",
                            "product": ["8Li"],
                            "chance": 0.0093
                        }
                    ]
                },
                "12Li": {
                    "half_life": "less than 10 ns",
                    "protons": 3,
                    "neutrons": 9,
                    "isotope_weight": 12.05378,
                    "decay": [
                        {
                            "mode": "n?",
                            "product": ["11Li?"],
                            "chance": 100
                        }
                    ]
                },
                "13Li": {
                    "half_life": "3.3 zs",
                    "protons": 3,
                    "neutrons": 10,
                    "isotope_weight": 13.06117,
                    "decay": [
                        {
                            "mode": "2n",
                            "product": ["11Li"],
                            "chance": 100
                        }
                    ]
                }
            }
        },
        "physical": {
            "atomic_mass": 6.94,
            "density": 0.534,
            "melt": 180.54,
            "boil": 1342
        },
        "electronic": {
            "electronegativity": 0.98,
            "electron_affinity": 0.618,
            "ionization_energy": 5.3917,
            "shells": [2, 1],
            "subshells": ["1s2", "2s1"],
            "oxidation_states": [1],
            "conductivity_type": "Conductor"
        },
        "measurements": {
            "radius": {
                "calculated": 152,
                "empirical": 145,
                "covalent": 128,
                "van_der_waals": 182
            },
            "hardness": {
                "brinell": null,
                "mohs": 0.6,
                "vickers": null
            },
            "atomic_volume": 13.1,
            "sound_transmission_speed": 6000
        },
        "historical": {
            "discoverers": {
                "Johan August Arfwedson": "male"
            },
            "date": "1817 AD"
        }
    }
}
