{
    "hydrogen": {
        "general": {
            "fullname": "Hydrogen",
            "symbol": "H",
            "atomic_number": 1,
            "description": "Hydrogen is the lightest and most abundant element in the universe. It is a colorless, odorless, and highly flammable diatomic gas at room temperature.\nHydrogen is the primary fuel for stars and the sun, playing a crucial role in the synthesis of heavier elements through nuclear fusion.\nIt forms compounds with most nonmetals and is essential in organic chemistry and industrial processes, including ammonia production and petroleum refining.",
            "appearance": {
                "color": null,
                "phase": "gas"
            },
            "period": 1,
            "group": 1,
            "block": "s",
            "type": "Reactive nonmetal",
            "radioactive": false,
            "half_life": null,
            "lifetime": null,
            "cas_number": "CAS1333-74-0"
        },
        "nuclear": {
            "protons": 1,
            "neutrons": 0,
            "electrons": 1,
            "valence_electrons": 1,
            "quarks": {
                "up": 2,
                "down": 1
            },
            "isotopes": {
                "¹H": {
                    "name": "Protium",
                    "half_life": null,
                    "isotope_weight": 1.007825031
                },
                "²H": {
                    "name": "Deuterium",
                    "half_life": null,
                    "isotope_weight": 2.014101777
                },
                "³H": {
                    "name": "Tritium",
                    "half_life": "12.32 years",
                    "isotope_weight": 3.016049281,
                    "daughter_isotope": "³He",
                    "decay": "β⁻"
                },
                "⁴H": {
                    "half_life": "139 yoctoseconds",
                    "isotope_weight": 4.02643,
                    "daughter_isotope": "³H",
                    "decay": "n"
                },
                "⁵H": {
                    "half_life": "86 yoctoseconds",
                    "isotope_weight": 5.03531,
                    "daughter_isotope": "³H",
                    "decay": "2n"
                },
                "⁶H": {
                    "half_life": "294 yoctoseconds",
                    "isotope_weight": 6.04496
                },
                "⁷H": {
                    "half_life": "652 yoctoseconds",
                    "isotope_weight": 7.05275
                }
            }
        },
        "physical": {
            "atomic_mass": 1.00797094202593,
            "density": 0.00008988,
            "melt": -259.16,
            "boil": -252.879
        },
        "electronic": {
            "electronegativity": 2.2,
            "electron_affinity": 0.754,
            "ionization_energy": 13.598,
            "shells": [1],
            "subshells": ["1s¹"],
            "oxidation_states": [-1, 1],
            "conductivity_type": "Insulator"
        },
        "measurements": {
            "radius": {
                "calculated": 53,
                "empirical": 25,
                "covalent": 32,
                "van_der_waals": 120
            },
            "hardness": {
                "brinell": null,
                "mohs": null,
                "vickers": null
            },
            "atomic_volume": 14.1,
            "sound_transmission_speed": 1310
        },
        "historical": {
            "discoverers": {
                "Henry Cavendish": "male"
            },
            "year": 1766
        }
    }
}
